/*--------------------------------*- C++ -*----------------------------------*\
| =========                 |                                                 |
| \\      /  F ield         | OpenFOAM: The Open Source CFD Toolbox           |
|  \\    /   O peration     | Version:  5                                     |
|   \\  /    A nd           | Web:      www.OpenFOAM.org                      |
|    \\/     M anipulation  |                                                 |
\*---------------------------------------------------------------------------*/
FoamFile
{
    version     2.0;
    format      ascii;
    class       volScalarField;
    object      T;
}
// * * * * * * * * * * * * * * * * * * * * * * * * * * * * * * * * * * * * * //

dimensions      [0 0 0 1 0 0 0];

internalField   uniform 273;

boundaryField
{
    coffee
    {
        type             fixedValue;
        value           uniform 373;
    }

    walls
    {
        type      	zeroGradient;     
    }

    interface2
    {
       type             fixedValue;
       value           uniform 373;
    }

    interface4
    {
        type      	zeroGradient;     
    }

    interface6
    {
        type      	zeroGradient;     
    }
    
    interface8
    {
        type      	zeroGradient;     
    }
}

// ************************************************************************* //
